HEADER
"PSFversion" "1.00"
"INv" "inv"
"OUTv" "outv"
"VDD!v" "vdd!v"
"GND!v" "0v"
