HEADER
"PSFversion" "1.00"
"design" "(\"ELEC402\" \"buffer\" \"schematic\" \"\")"
"simulator" "hspiceD"
"temperature" "25.0"
"host" ""
"date" "Oct 26 11:33:45 2022"
"title" ""
"analysisList" "()"
END
