HEADER
"PSFversion" "1.00"
"Time Stamp" "Oct 26 11:33:45 2022"
TYPE
"variable" STRUCT(
"value" FLOAT DOUBLE
) PROP( "key" "element" )
VALUE
"TEMPDC" "variable" ( 25.0 ) PROP( )
END
